DF-ISE text

Info {
  version   = 1.0
  type      = xyplot
  datasets  = [
    "time"
    "gate OuterVoltage" "gate InnerVoltage" "gate QuasiFermiPotential" "gate DisplacementCurrent" "gate eCurrent"
    "gate hCurrent" "gate TotalCurrent" "gate Charge" "source OuterVoltage" "source InnerVoltage"
    "source QuasiFermiPotential" "source DisplacementCurrent" "source eCurrent" "source hCurrent" "source TotalCurrent"
    "source Charge" "substrate OuterVoltage" "substrate InnerVoltage" "substrate QuasiFermiPotential" "substrate DisplacementCurrent"
    "substrate eCurrent" "substrate hCurrent" "substrate TotalCurrent" "substrate Charge" "drain OuterVoltage"
    "drain InnerVoltage" "drain QuasiFermiPotential" "drain DisplacementCurrent" "drain eCurrent" "drain hCurrent"
    "drain TotalCurrent" "drain Charge" ]
  functions = [
    Time
    OuterVoltage InnerVoltage QuasiFermiPotential DisplacementCurrent eCurrent
    hCurrent TotalCurrent Charge OuterVoltage InnerVoltage
    QuasiFermiPotential DisplacementCurrent eCurrent hCurrent TotalCurrent
    Charge OuterVoltage InnerVoltage QuasiFermiPotential DisplacementCurrent
    eCurrent hCurrent TotalCurrent Charge OuterVoltage
    InnerVoltage QuasiFermiPotential DisplacementCurrent eCurrent hCurrent
    TotalCurrent Charge ]
}

Data {
      0.00000000000000E+00
      0.00000000000000E+00   0.00000000000000E+00   0.00000000000000E+00   0.00000000000000E+00   0.00000000000000E+00
      0.00000000000000E+00   0.00000000000000E+00   4.44157189023405E-16   0.00000000000000E+00   0.00000000000000E+00
      0.00000000000000E+00   0.00000000000000E+00  -4.45411577019600E-04   7.31332185692911E-21  -4.45411577019600E-04
      6.37493947176314E-16   0.00000000000000E+00   0.00000000000000E+00   0.00000000000000E+00   0.00000000000000E+00
      4.45411577019495E-04  -1.01000378994090E-16   4.45411577019394E-04  -2.50906147758981E-15   1.80000000000000E+00
      1.80000000000000E+00   0.00000000000000E+00   0.00000000000000E+00   2.01995345719097E-16   3.99766667663020E-20
      2.02035322385863E-16   1.42741034139009E-15
      5.00000000000000E-02
      9.00000000000000E-02   9.00000000000000E-02   0.00000000000000E+00   0.00000000000000E+00   0.00000000000000E+00
      0.00000000000000E+00   0.00000000000000E+00   5.76202315304192E-16   0.00000000000000E+00   0.00000000000000E+00
      0.00000000000000E+00   0.00000000000000E+00  -1.86667083078148E-15   4.20999559540208E-32  -1.86667083078148E-15
      7.93321022047672E-16   0.00000000000000E+00   0.00000000000000E+00   0.00000000000000E+00   0.00000000000000E+00
     -9.34280292665523E-18  -7.63181066821736E-17  -8.56609096088288E-17  -2.78340609343604E-15   1.80000000000000E+00
      1.80000000000000E+00   0.00000000000000E+00   0.00000000000000E+00   1.95231790362659E-15   1.38367637142664E-20
      1.95233174039030E-15   1.41388275608417E-15
      1.00000000000000E-01
      1.80000000000000E-01   1.80000000000000E-01   0.00000000000000E+00   0.00000000000000E+00   0.00000000000000E+00
      0.00000000000000E+00   0.00000000000000E+00   6.98007627989960E-16   0.00000000000000E+00   0.00000000000000E+00
      0.00000000000000E+00   0.00000000000000E+00  -2.88400241143115E-14  -2.46080440380815E-32  -2.88400241143115E-14
      7.84588379877735E-16   0.00000000000000E+00   0.00000000000000E+00   0.00000000000000E+00   0.00000000000000E+00
      4.95083251701768E-16  -8.04826893666228E-17   4.14600562335145E-16  -2.88285762148087E-15   1.80000000000000E+00
      1.80000000000000E+00   0.00000000000000E+00   0.00000000000000E+00   2.84254097158242E-14   1.38361521840668E-20
      2.84254235519764E-14   1.40026161361316E-15
      1.50000000000000E-01
      2.70000000000000E-01   2.70000000000000E-01   0.00000000000000E+00   0.00000000000000E+00   0.00000000000000E+00
      0.00000000000000E+00   0.00000000000000E+00   8.13091373522985E-16   0.00000000000000E+00   0.00000000000000E+00
      0.00000000000000E+00   0.00000000000000E+00  -4.87890345390020E-13  -7.46459561258971E-32  -4.87890345390020E-13
      7.76358206670916E-16   0.00000000000000E+00   0.00000000000000E+00   0.00000000000000E+00   0.00000000000000E+00
      8.13831597486993E-17  -8.50539358028663E-17  -3.67077605416696E-18  -2.97600847702471E-15   1.80000000000000E+00
      1.80000000000000E+00   0.00000000000000E+00   0.00000000000000E+00   4.87894002330544E-13   1.38355304324113E-20
      4.87894016166074E-13   1.38655889683081E-15
      2.00000000000000E-01
      3.60000000000000E-01   3.60000000000000E-01   0.00000000000000E+00   0.00000000000000E+00   0.00000000000000E+00
      0.00000000000000E+00   0.00000000000000E+00   9.22993614668996E-16   0.00000000000000E+00   0.00000000000000E+00
      0.00000000000000E+00   0.00000000000000E+00  -8.73925835898299E-12  -5.63623091294446E-31  -8.73925835898299E-12
      7.68784725648434E-16   0.00000000000000E+00   0.00000000000000E+00   0.00000000000000E+00   0.00000000000000E+00
      1.84923718241238E-17  -8.61695208445965E-17  -6.76771490204727E-17  -3.06456237013164E-15   1.80000000000000E+00
      1.80000000000000E+00   0.00000000000000E+00   0.00000000000000E+00   8.73932602229712E-12   1.38349019643681E-20
      8.73932603613202E-12   1.37278402981421E-15
      2.50000000000000E-01
      4.50000000000000E-01   4.50000000000000E-01   0.00000000000000E+00   0.00000000000000E+00   0.00000000000000E+00
      0.00000000000000E+00   0.00000000000000E+00   1.02915482902923E-15   0.00000000000000E+00   0.00000000000000E+00
      0.00000000000000E+00   0.00000000000000E+00  -1.62694083917918E-10  -9.32550093213473E-30  -1.62694083917918E-10
      7.62078906652536E-16   0.00000000000000E+00   0.00000000000000E+00   0.00000000000000E+00   0.00000000000000E+00
     -3.56321420986321E-17  -8.34817545008941E-17  -1.19113896599526E-16  -3.15017846033069E-15   1.80000000000000E+00
      1.80000000000000E+00   0.00000000000000E+00   0.00000000000000E+00   1.62694203017980E-10   1.38343246263951E-20
      1.62694203031814E-10   1.35894472464892E-15
      3.00000000000000E-01
      5.40000000000000E-01   5.40000000000000E-01   0.00000000000000E+00   0.00000000000000E+00   0.00000000000000E+00
      0.00000000000000E+00   0.00000000000000E+00   1.13430472931899E-15   0.00000000000000E+00   0.00000000000000E+00
      0.00000000000000E+00   0.00000000000000E+00  -3.10994129227592E-09  -1.76816252044361E-28  -3.10994129227592E-09
      7.56505005339357E-16   0.00000000000000E+00   0.00000000000000E+00   0.00000000000000E+00   0.00000000000000E+00
     -1.43670534870988E-16  -8.12152858177459E-17  -2.24885820688734E-16  -3.23585790104930E-15   1.80000000000000E+00
      1.80000000000000E+00   0.00000000000000E+00   0.00000000000000E+00   3.10994151714785E-09   1.38338495626910E-20
      3.10994151716169E-09   1.34504816639094E-15
      3.50000000000000E-01
      6.30000000000000E-01   6.30000000000000E-01   0.00000000000000E+00   0.00000000000000E+00   0.00000000000000E+00
      0.00000000000000E+00   0.00000000000000E+00   1.25250767770222E-15   0.00000000000000E+00   0.00000000000000E+00
      0.00000000000000E+00   0.00000000000000E+00  -5.63684770227921E-08  -3.20769413037082E-27  -5.63684770227921E-08
      7.52285030728915E-16   0.00000000000000E+00   0.00000000000000E+00   0.00000000000000E+00   0.00000000000000E+00
     -2.34830457210155E-16  -8.02503088219752E-17  -3.15080766032130E-16  -3.33590665051113E-15   1.80000000000000E+00
      1.80000000000000E+00   0.00000000000000E+00   0.00000000000000E+00   5.63684773378585E-08   1.38330595822334E-20
      5.63684773378723E-08   1.33111394208000E-15
      4.00000000000000E-01
      7.20000000000000E-01   7.20000000000000E-01   0.00000000000000E+00   0.00000000000000E+00   0.00000000000000E+00
      0.00000000000000E+00   0.00000000000000E+00   1.44288559421113E-15   0.00000000000000E+00   0.00000000000000E+00
      0.00000000000000E+00   0.00000000000000E+00  -5.96561820860566E-07  -3.39833478095179E-26  -5.96561820860566E-07
      7.49329524851778E-16   0.00000000000000E+00   0.00000000000000E+00   0.00000000000000E+00   0.00000000000000E+00
      7.23180061527841E-17  -8.16710014147769E-17  -9.35299526199278E-18  -3.50949292152442E-15   1.80000000000000E+00
      1.80000000000000E+00   0.00000000000000E+00   0.00000000000000E+00   5.96561820869896E-07   1.38329620361331E-20
      5.96561820869910E-07   1.31727780246151E-15
      4.50000000000000E-01
      8.10000000000000E-01   8.10000000000000E-01   0.00000000000000E+00   0.00000000000000E+00   0.00000000000000E+00
      0.00000000000000E+00   0.00000000000000E+00   1.72997961841406E-15   0.00000000000000E+00   0.00000000000000E+00
      0.00000000000000E+00   0.00000000000000E+00  -2.57309839654075E-06  -1.46684889175456E-25  -2.57309839654075E-06
      7.47100758526218E-16   0.00000000000000E+00   0.00000000000000E+00   0.00000000000000E+00   0.00000000000000E+00
     -8.06182510718517E-17  -8.54494874368113E-17  -1.66067738508663E-16  -3.78090368136145E-15   1.80000000000000E+00
      1.80000000000000E+00   0.00000000000000E+00   0.00000000000000E+00   2.57309839670678E-06   1.38344475379687E-20
      2.57309839670680E-06   1.30382330442118E-15
      5.00000000000000E-01
      9.00000000000000E-01   9.00000000000000E-01   0.00000000000000E+00   0.00000000000000E+00   0.00000000000000E+00
      0.00000000000000E+00   0.00000000000000E+00   2.06999492297800E-15   0.00000000000000E+00   0.00000000000000E+00
      0.00000000000000E+00   0.00000000000000E+00  -6.43820165410567E-06  -3.67229224801438E-25  -6.43820165410567E-06
      7.45219893474789E-16   0.00000000000000E+00   0.00000000000000E+00   0.00000000000000E+00   0.00000000000000E+00
      1.33155894274092E-16  -8.98486477177967E-17   4.33072465562954E-17  -4.10607962102077E-15   1.80000000000000E+00
      1.80000000000000E+00   0.00000000000000E+00   0.00000000000000E+00   6.43820165406229E-06   1.38379835962132E-20
      6.43820165406231E-06   1.29086480456798E-15
      5.50000000000000E-01
      9.90000000000000E-01   9.90000000000000E-01   0.00000000000000E+00   0.00000000000000E+00   0.00000000000000E+00
      0.00000000000000E+00   0.00000000000000E+00   2.43853030856052E-15   0.00000000000000E+00   0.00000000000000E+00
      0.00000000000000E+00   0.00000000000000E+00  -1.21908367623589E-05  -6.95678680801513E-25  -1.21908367623589E-05
      7.43538507511315E-16   0.00000000000000E+00   0.00000000000000E+00   0.00000000000000E+00   0.00000000000000E+00
      2.97309319917711E-16  -9.42052700841854E-17   2.03104049833526E-16  -4.46044250999539E-15   1.80000000000000E+00
      1.80000000000000E+00   0.00000000000000E+00   0.00000000000000E+00   1.21908367621558E-05   1.38435785789042E-20
      1.21908367621558E-05   1.27837369392357E-15
      6.00000000000000E-01
      1.08000000000000E+00   1.08000000000000E+00   0.00000000000000E+00   0.00000000000000E+00   0.00000000000000E+00
      0.00000000000000E+00   0.00000000000000E+00   2.82550641087291E-15   0.00000000000000E+00   0.00000000000000E+00
      0.00000000000000E+00   0.00000000000000E+00  -1.97032350067032E-05  -1.12482696886233E-24  -1.97032350067032E-05
      7.41990305801818E-16   0.00000000000000E+00   0.00000000000000E+00   0.00000000000000E+00   0.00000000000000E+00
      4.79189848094262E-16  -9.83777534323212E-17   3.80812094661941E-16  -4.83378134406631E-15   1.80000000000000E+00
      1.80000000000000E+00   0.00000000000000E+00   0.00000000000000E+00   1.97032350063221E-05   1.38510955756251E-20
      1.97032350063221E-05   1.26628462739159E-15
      6.50000000000000E-01
      1.17000000000000E+00   1.17000000000000E+00   0.00000000000000E+00   0.00000000000000E+00   0.00000000000000E+00
      0.00000000000000E+00   0.00000000000000E+00   3.22595063632249E-15   0.00000000000000E+00   0.00000000000000E+00
      0.00000000000000E+00   0.00000000000000E+00  -2.88225002143905E-05  -1.64601123482069E-24  -2.88225002143905E-05
      7.40539489022497E-16   0.00000000000000E+00   0.00000000000000E+00   0.00000000000000E+00   0.00000000000000E+00
      2.08390898682604E-16  -1.02344431216293E-16   1.06046467466311E-16  -5.22102461575631E-15   1.80000000000000E+00
      1.80000000000000E+00   0.00000000000000E+00   0.00000000000000E+00   2.88225002142840E-05   1.38603691610670E-20
      2.88225002142840E-05   1.25453449041133E-15
      7.00000000000000E-01
      1.26000000000000E+00   1.26000000000000E+00   0.00000000000000E+00   0.00000000000000E+00   0.00000000000000E+00
      0.00000000000000E+00   0.00000000000000E+00   3.63693912753231E-15   0.00000000000000E+00   0.00000000000000E+00
      0.00000000000000E+00   0.00000000000000E+00  -3.93986853745926E-05  -2.25071769985678E-24  -3.93986853745926E-05
      7.39164053374205E-16   0.00000000000000E+00   0.00000000000000E+00   0.00000000000000E+00   0.00000000000000E+00
     -1.81612151220559E-16  -1.06116537160633E-16  -2.87728688381192E-16  -5.61916479377833E-15   1.80000000000000E+00
      1.80000000000000E+00   0.00000000000000E+00   0.00000000000000E+00   3.93986853748797E-05   1.38712359695093E-20
      3.93986853748797E-05   1.24306161287181E-15
      7.50000000000000E-01
      1.35000000000000E+00   1.35000000000000E+00   0.00000000000000E+00   0.00000000000000E+00   0.00000000000000E+00
      0.00000000000000E+00   0.00000000000000E+00   4.05657804740847E-15   0.00000000000000E+00   0.00000000000000E+00
      0.00000000000000E+00   0.00000000000000E+00  -5.12927323026200E-05  -2.93104157037470E-24  -5.12927323026200E-05
      7.37849231402820E-16   0.00000000000000E+00   0.00000000000000E+00   0.00000000000000E+00   0.00000000000000E+00
      1.01130019836512E-16  -1.09711246020402E-16  -8.58122618388970E-18  -6.02624636363241E-15   1.80000000000000E+00
      1.80000000000000E+00   0.00000000000000E+00   0.00000000000000E+00   5.12927323026280E-05   1.38835457557295E-20
      5.12927323026280E-05   1.23181908482111E-15
      8.00000000000000E-01
      1.44000000000000E+00   1.44000000000000E+00   0.00000000000000E+00   0.00000000000000E+00   0.00000000000000E+00
      0.00000000000000E+00   0.00000000000000E+00   4.48349862809964E-15   0.00000000000000E+00   0.00000000000000E+00
      0.00000000000000E+00   0.00000000000000E+00  -6.43785333355992E-05  -3.67980874499423E-24  -6.43785333355992E-05
      7.36584473526365E-16   0.00000000000000E+00   0.00000000000000E+00   0.00000000000000E+00   0.00000000000000E+00
     -5.07405913576027E-16  -1.13147898759219E-16  -6.20553812335246E-16  -6.44084591258597E-15   1.80000000000000E+00
      1.80000000000000E+00   0.00000000000000E+00   0.00000000000000E+00   6.43785333362188E-05   1.38971620266365E-20
      6.43785333362188E-05   1.22076281095998E-15
      8.50000000000000E-01
      1.53000000000000E+00   1.53000000000000E+00   0.00000000000000E+00   0.00000000000000E+00   0.00000000000000E+00
      0.00000000000000E+00   0.00000000000000E+00   4.91670418971187E-15   0.00000000000000E+00   0.00000000000000E+00
      0.00000000000000E+00   0.00000000000000E+00  -7.85424239380975E-05  -4.49054857605199E-24  -7.85424239380975E-05
      7.35361895317844E-16   0.00000000000000E+00   0.00000000000000E+00   0.00000000000000E+00   0.00000000000000E+00
      3.65890505397832E-17  -1.16443150793424E-16  -7.98541002536404E-17  -6.86193046624072E-15   1.80000000000000E+00
      1.80000000000000E+00   0.00000000000000E+00   0.00000000000000E+00   7.85424239381763E-05   1.39119625647056E-20
      7.85424239381763E-05   1.20986438121103E-15
      9.00000000000000E-01
      1.62000000000000E+00   1.62000000000000E+00   0.00000000000000E+00   0.00000000000000E+00   0.00000000000000E+00
      0.00000000000000E+00   0.00000000000000E+00   5.35538885707380E-15   0.00000000000000E+00   0.00000000000000E+00
      0.00000000000000E+00   0.00000000000000E+00  -9.36825355802282E-05  -5.35745877689066E-24  -9.36825355802282E-05
      7.34175397414237E-16   0.00000000000000E+00   0.00000000000000E+00   0.00000000000000E+00   0.00000000000000E+00
     -2.33245644054514E-16  -1.19611307356985E-16  -3.52856951411499E-16  -7.28866100014832E-15   1.80000000000000E+00
      1.80000000000000E+00   0.00000000000000E+00   0.00000000000000E+00   9.36825355805800E-05   1.39278382645706E-20
      9.36825355805800E-05   1.19909674566030E-15
      9.50000000000000E-01
      1.71000000000000E+00   1.71000000000000E+00   0.00000000000000E+00   0.00000000000000E+00   0.00000000000000E+00
      0.00000000000000E+00   0.00000000000000E+00   5.79894537331310E-15   0.00000000000000E+00   0.00000000000000E+00
      0.00000000000000E+00   0.00000000000000E+00  -1.09707199080068E-04  -6.27531517203269E-24  -1.09707199080068E-04
      7.33020141071191E-16   0.00000000000000E+00   0.00000000000000E+00   0.00000000000000E+00   0.00000000000000E+00
      4.34859141137716E-17  -1.22661683345920E-16  -7.91757692321489E-17  -7.72041701640852E-15   1.80000000000000E+00
      1.80000000000000E+00   0.00000000000000E+00   0.00000000000000E+00   1.09707199080146E-04   1.39446884343898E-20
      1.09707199080146E-04   1.18845150202424E-15
      1.00000000000000E+00
      1.80000000000000E+00   1.80000000000000E+00   0.00000000000000E+00   0.00000000000000E+00   0.00000000000000E+00
      0.00000000000000E+00   0.00000000000000E+00   6.24684069796294E-15   0.00000000000000E+00   0.00000000000000E+00
      0.00000000000000E+00   0.00000000000000E+00  -1.26534316571705E-04  -7.23943658401365E-24  -1.26534316571705E-04
      7.31892204762521E-16   0.00000000000000E+00   0.00000000000000E+00   0.00000000000000E+00   0.00000000000000E+00
      3.29617023374588E-16  -1.25601575223185E-16   2.04015448151403E-16  -8.15664680561019E-15   1.80000000000000E+00
      1.80000000000000E+00   0.00000000000000E+00   0.00000000000000E+00   1.26534316571500E-04   1.39624274348640E-20
      1.26534316571500E-04   1.17791390288475E-15
}
