DF-ISE text

Info {
  version   = 1.0
  type      = xyplot
  datasets  = [
    "time"
    "gate OuterVoltage" "gate InnerVoltage" "gate QuasiFermiPotential" "gate DisplacementCurrent" "gate eCurrent"
    "gate hCurrent" "gate TotalCurrent" "gate Charge" "source OuterVoltage" "source InnerVoltage"
    "source QuasiFermiPotential" "source DisplacementCurrent" "source eCurrent" "source hCurrent" "source TotalCurrent"
    "source Charge" "drain OuterVoltage" "drain InnerVoltage" "drain QuasiFermiPotential" "drain DisplacementCurrent"
    "drain eCurrent" "drain hCurrent" "drain TotalCurrent" "drain Charge" ]
  functions = [
    Time
    OuterVoltage InnerVoltage QuasiFermiPotential DisplacementCurrent eCurrent
    hCurrent TotalCurrent Charge OuterVoltage InnerVoltage
    QuasiFermiPotential DisplacementCurrent eCurrent hCurrent TotalCurrent
    Charge OuterVoltage InnerVoltage QuasiFermiPotential DisplacementCurrent
    eCurrent hCurrent TotalCurrent Charge ]
}

Data {
      0.00000000000000E+00
      0.00000000000000E+00   0.00000000000000E+00   0.00000000000000E+00   0.00000000000000E+00   0.00000000000000E+00
      0.00000000000000E+00   0.00000000000000E+00   7.11670529432888E-16   0.00000000000000E+00   0.00000000000000E+00
      0.00000000000000E+00   0.00000000000000E+00  -1.41140306656862E-17  -1.58918143640639E-32  -1.41140306656862E-17
      8.02432752679677E-16   0.00000000000000E+00   0.00000000000000E+00   0.00000000000000E+00   0.00000000000000E+00
     -5.87306005677949E-18  -6.50356493802059E-33  -5.87306005677950E-18   7.85064809504702E-16
      0.00000000000000E+00
      0.00000000000000E+00   0.00000000000000E+00   0.00000000000000E+00   0.00000000000000E+00   0.00000000000000E+00
      0.00000000000000E+00   0.00000000000000E+00   7.11670529311237E-16   0.00000000000000E+00   0.00000000000000E+00
      0.00000000000000E+00   0.00000000000000E+00   2.95896551385658E-16  -4.06864968368719E-30   2.95896551385654E-16
      8.02432749913998E-16   0.00000000000000E+00   0.00000000000000E+00   0.00000000000000E+00   0.00000000000000E+00
     -1.45521335999420E-18  -4.19351085912515E-30  -1.45521335999839E-18   7.85064808338231E-16
      1.00000000000000E-02
      0.00000000000000E+00   0.00000000000000E+00   0.00000000000000E+00   0.00000000000000E+00   0.00000000000000E+00
      0.00000000000000E+00   0.00000000000000E+00   7.06000128138594E-16   0.00000000000000E+00   0.00000000000000E+00
      0.00000000000000E+00   0.00000000000000E+00   3.94375490567642E-17  -6.92326510284113E-21   3.94306257916613E-17
      8.01544520196582E-16   7.00000000000000E-03   7.00000000000000E-03   0.00000000000000E+00   0.00000000000000E+00
      9.96207252131362E-17   5.58454494169395E-21   9.96263097580779E-17   7.86811245248367E-16
      2.82222222222222E-02
      0.00000000000000E+00   0.00000000000000E+00   0.00000000000000E+00   0.00000000000000E+00   0.00000000000000E+00
      0.00000000000000E+00   0.00000000000000E+00   6.96337519839751E-16   0.00000000000000E+00   0.00000000000000E+00
      0.00000000000000E+00   0.00000000000000E+00  -1.87855771978158E-16  -2.08107996824622E-20  -1.87876582777841E-16
      8.00056356242700E-16   1.97555555555556E-02   1.97555555555556E-02   0.00000000000000E+00   0.00000000000000E+00
      8.52636214591933E-17   1.47289944184873E-20   8.52783504536118E-17   7.90134356136464E-16
      6.22370370370370E-02
      0.00000000000000E+00   0.00000000000000E+00   0.00000000000000E+00   0.00000000000000E+00   0.00000000000000E+00
      0.00000000000000E+00   0.00000000000000E+00   6.80592936358003E-16   0.00000000000000E+00   0.00000000000000E+00
      0.00000000000000E+00   0.00000000000000E+00  -1.96851242039796E-16  -4.98701250457734E-20  -1.96901112164842E-16
      7.97720737793850E-16   4.35659259259259E-02   4.35659259259259E-02   0.00000000000000E+00   0.00000000000000E+00
      2.16938217040492E-16   2.77275100402461E-20   2.16965944550532E-16   7.96799129672388E-16
      1.25731358024691E-01
      0.00000000000000E+00   0.00000000000000E+00   0.00000000000000E+00   0.00000000000000E+00   0.00000000000000E+00
      0.00000000000000E+00   0.00000000000000E+00   6.57932806365315E-16   0.00000000000000E+00   0.00000000000000E+00
      0.00000000000000E+00   0.00000000000000E+00  -9.12198995696762E-16  -1.07139690357984E-19  -9.12306135387120E-16
      7.94645727305847E-16   8.80119506172840E-02   8.80119506172840E-02   0.00000000000000E+00   0.00000000000000E+00
      4.24717540826109E-17   3.91857980975424E-20   4.25109398807084E-17   8.10488028206364E-16
      2.25731358024691E-01
      0.00000000000000E+00   0.00000000000000E+00   0.00000000000000E+00   0.00000000000000E+00   0.00000000000000E+00
      0.00000000000000E+00   0.00000000000000E+00   6.32103830595188E-16   0.00000000000000E+00   0.00000000000000E+00
      0.00000000000000E+00   0.00000000000000E+00  -2.84084660905179E-16  -1.93545204890277E-19  -2.84278206110070E-16
      7.91670186600297E-16   1.58011950617284E-01   1.58011950617284E-01   0.00000000000000E+00   0.00000000000000E+00
      2.63973993196128E-16   4.14076637184624E-20   2.64015400859847E-16   8.33514232499328E-16
      3.25731358024691E-01
      0.00000000000000E+00   0.00000000000000E+00   0.00000000000000E+00   0.00000000000000E+00   0.00000000000000E+00
      0.00000000000000E+00   0.00000000000000E+00   6.10321946419935E-16   0.00000000000000E+00   0.00000000000000E+00
      0.00000000000000E+00   0.00000000000000E+00  -2.86503721579042E-16  -2.86805645128985E-19  -2.86790527224171E-16
      7.89465227072270E-16   2.28011950617284E-01   2.28011950617284E-01   0.00000000000000E+00   0.00000000000000E+00
      1.45946677295627E-16   4.11285453973369E-20   1.45987805841024E-16   8.56769800595201E-16
      4.25731358024691E-01
      0.00000000000000E+00   0.00000000000000E+00   0.00000000000000E+00   0.00000000000000E+00   0.00000000000000E+00
      0.00000000000000E+00   0.00000000000000E+00   5.90250443781455E-16   0.00000000000000E+00   0.00000000000000E+00
      0.00000000000000E+00   0.00000000000000E+00   4.67627953118370E-16  -3.93480437046530E-19   4.67234472681324E-16
      7.87591686039991E-16   2.98011950617284E-01   2.98011950617284E-01   0.00000000000000E+00   0.00000000000000E+00
      4.28598520091458E-16   4.11764514261306E-20   4.28639696542884E-16   8.80041326608254E-16
      5.25731358024691E-01
      0.00000000000000E+00   0.00000000000000E+00   0.00000000000000E+00   0.00000000000000E+00   0.00000000000000E+00
      0.00000000000000E+00   0.00000000000000E+00   5.71809973832729E-16   0.00000000000000E+00   0.00000000000000E+00
      0.00000000000000E+00   0.00000000000000E+00  -4.61339530206477E-16  -5.07598434262872E-19  -4.61847128640740E-16
      7.86031124554878E-16   3.68011950617284E-01   3.68011950617284E-01   0.00000000000000E+00   0.00000000000000E+00
     -2.81365890074313E-17   4.12632212167551E-20  -2.80953257862145E-17   9.03497149888775E-16
      6.25731358024691E-01
      0.00000000000000E+00   0.00000000000000E+00   0.00000000000000E+00   0.00000000000000E+00   0.00000000000000E+00
      0.00000000000000E+00   0.00000000000000E+00   5.54468962923813E-16   0.00000000000000E+00   0.00000000000000E+00
      0.00000000000000E+00   0.00000000000000E+00  -1.01181343755505E-15  -6.29439134166222E-19  -1.01244287668922E-15
      7.84683443966018E-16   4.38011950617284E-01   4.38011950617284E-01   0.00000000000000E+00   0.00000000000000E+00
      4.85659198272514E-16   4.13227703855406E-20   4.85700521042899E-16   9.27135768532788E-16
      7.25731358024691E-01
      0.00000000000000E+00   0.00000000000000E+00   0.00000000000000E+00   0.00000000000000E+00   0.00000000000000E+00
      0.00000000000000E+00   0.00000000000000E+00   5.37520124412553E-16   0.00000000000000E+00   0.00000000000000E+00
      0.00000000000000E+00   0.00000000000000E+00  -4.17361259611445E-16  -7.67875343310546E-19  -4.18129134954756E-16
      7.83418301061958E-16   5.08011950617284E-01   5.08011950617284E-01   0.00000000000000E+00   0.00000000000000E+00
     -2.21814060195234E-17   4.13639472556513E-20  -2.21400420722678E-17   9.50874661514951E-16
      8.25731358024691E-01
      0.00000000000000E+00   0.00000000000000E+00   0.00000000000000E+00   0.00000000000000E+00   0.00000000000000E+00
      0.00000000000000E+00   0.00000000000000E+00   5.20876450680878E-16   0.00000000000000E+00   0.00000000000000E+00
      0.00000000000000E+00   0.00000000000000E+00  -5.16802157062919E-16  -9.24982019125782E-19  -5.17727139082045E-16
      7.82219150832615E-16   5.78011950617284E-01   5.78011950617284E-01   0.00000000000000E+00   0.00000000000000E+00
      4.53950107454744E-16   4.13822575430984E-20   4.53991489712287E-16   9.74707001119863E-16
      9.25731358024691E-01
      0.00000000000000E+00   0.00000000000000E+00   0.00000000000000E+00   0.00000000000000E+00   0.00000000000000E+00
      0.00000000000000E+00   0.00000000000000E+00   5.03318727067642E-16   0.00000000000000E+00   0.00000000000000E+00
      0.00000000000000E+00   0.00000000000000E+00  -4.84314125513041E-16  -1.13874939786522E-18  -4.85452874910906E-16
      7.80865859730255E-16   6.48011950617284E-01   6.48011950617284E-01   0.00000000000000E+00   0.00000000000000E+00
      2.94970234238131E-16   4.13915570481218E-20   2.95011625795179E-16   9.98441081277924E-16
      1.00000000000000E+00
      0.00000000000000E+00   0.00000000000000E+00   0.00000000000000E+00   0.00000000000000E+00   0.00000000000000E+00
      0.00000000000000E+00   0.00000000000000E+00   4.85513653538432E-16   0.00000000000000E+00   0.00000000000000E+00
      0.00000000000000E+00   0.00000000000000E+00  -3.60559269084112E-16  -1.50878358704437E-18  -3.62068052671157E-16
      7.79015280973815E-16   7.00000000000000E-01   7.00000000000000E-01   0.00000000000000E+00   0.00000000000000E+00
      1.10175161337354E-16   4.13969743111025E-20   1.10216558311665E-16   1.01536498318975E-15
      1.00000000000000E-02
     -1.00000000000000E-03  -1.00000000000000E-03   0.00000000000000E+00   0.00000000000000E+00   0.00000000000000E+00
      0.00000000000000E+00   0.00000000000000E+00   4.83614694714492E-16   0.00000000000000E+00   0.00000000000000E+00
      0.00000000000000E+00   0.00000000000000E+00  -3.00920782863182E-16  -1.51633274980558E-18  -3.02437115612988E-16
      7.79081338223455E-16   7.00000000000000E-01   7.00000000000000E-01   0.00000000000000E+00   0.00000000000000E+00
      1.48356676793936E-16   4.13969483803561E-20   1.48398073742316E-16   1.01547451099593E-15
      2.00000000000000E-02
     -2.00000000000000E-03  -2.00000000000000E-03   0.00000000000000E+00   0.00000000000000E+00   0.00000000000000E+00
      0.00000000000000E+00   0.00000000000000E+00   4.81708955097844E-16   0.00000000000000E+00   0.00000000000000E+00
      0.00000000000000E+00   0.00000000000000E+00  -6.13341817191078E-16  -1.52407476979311E-18  -6.14865891960871E-16
      7.79146734152751E-16   7.00000000000000E-01   7.00000000000000E-01   0.00000000000000E+00   0.00000000000000E+00
      2.04681221663184E-16   4.13969220202483E-20   2.04722618585204E-16   1.01558343437601E-15
      3.00000000000000E-02
     -3.00000000000000E-03  -3.00000000000000E-03   0.00000000000000E+00   0.00000000000000E+00   0.00000000000000E+00
      0.00000000000000E+00   0.00000000000000E+00   4.79796309017073E-16   0.00000000000000E+00   0.00000000000000E+00
      0.00000000000000E+00   0.00000000000000E+00  -7.37593575182589E-16  -1.53201576591482E-18  -7.39125590948504E-16
      7.79211452551896E-16   7.00000000000000E-01   7.00000000000000E-01   0.00000000000000E+00   0.00000000000000E+00
      4.60207689835531E-16   4.13968952236012E-20   4.60249086730754E-16   1.01569173973261E-15
      4.00000000000000E-02
     -4.00000000000000E-03  -4.00000000000000E-03   0.00000000000000E+00   0.00000000000000E+00   0.00000000000000E+00
      0.00000000000000E+00   0.00000000000000E+00   4.77876621836413E-16   0.00000000000000E+00   0.00000000000000E+00
      0.00000000000000E+00   0.00000000000000E+00  -5.24058049116761E-16  -1.54016232849682E-18  -5.25598211445258E-16
      7.79275475796108E-16   7.00000000000000E-01   7.00000000000000E-01   0.00000000000000E+00   0.00000000000000E+00
      1.84157384799144E-16   4.13968679825050E-20   1.84198781667127E-16   1.01579941226758E-15
      5.00000000000000E-02
     -5.00000000000000E-03  -5.00000000000000E-03   0.00000000000000E+00   0.00000000000000E+00   0.00000000000000E+00
      0.00000000000000E+00   0.00000000000000E+00   4.75949760756536E-16   0.00000000000000E+00   0.00000000000000E+00
      0.00000000000000E+00   0.00000000000000E+00  -5.22708513182953E-16  -1.54852108282692E-18  -5.24257034265780E-16
      7.79338786774261E-16   7.00000000000000E-01   7.00000000000000E-01   0.00000000000000E+00   0.00000000000000E+00
      1.57809704619813E-16   4.13968402892894E-20   1.57851101460103E-16   1.01590643762685E-15
      6.00000000000000E-02
     -6.00000000000000E-03  -6.00000000000000E-03   0.00000000000000E+00   0.00000000000000E+00   0.00000000000000E+00
      0.00000000000000E+00   0.00000000000000E+00   4.74015590760469E-16   0.00000000000000E+00   0.00000000000000E+00
      0.00000000000000E+00   0.00000000000000E+00   1.16576820643728E-18  -1.55709886158135E-18  -3.91330655144069E-19
      7.79401368170744E-16   7.00000000000000E-01   7.00000000000000E-01   0.00000000000000E+00   0.00000000000000E+00
      4.95103871626944E-16   4.13968121361629E-20   4.95145268439080E-16   1.01601280128817E-15
      7.00000000000000E-02
     -7.00000000000000E-03  -7.00000000000000E-03   0.00000000000000E+00   0.00000000000000E+00   0.00000000000000E+00
      0.00000000000000E+00   0.00000000000000E+00   4.72073974054730E-16   0.00000000000000E+00   0.00000000000000E+00
      0.00000000000000E+00   0.00000000000000E+00  -2.09135228613212E-16  -1.56590273471413E-18  -2.10701131347926E-16
      7.79463202371819E-16   7.00000000000000E-01   7.00000000000000E-01   0.00000000000000E+00   0.00000000000000E+00
      1.35899223712988E-16   4.13967835151669E-20   1.35940620496504E-16   1.01611848848150E-15
      8.00000000000000E-02
     -8.00000000000000E-03  -8.00000000000000E-03   0.00000000000000E+00   0.00000000000000E+00   0.00000000000000E+00
      0.00000000000000E+00   0.00000000000000E+00   4.70124766918618E-16   0.00000000000000E+00   0.00000000000000E+00
      0.00000000000000E+00   0.00000000000000E+00  -6.68151549729430E-16  -1.57494014968906E-18  -6.69726489879118E-16
      7.79524270916146E-16   7.00000000000000E-01   7.00000000000000E-01   0.00000000000000E+00   0.00000000000000E+00
      2.74817907589748E-16   4.13967544179001E-20   2.74859304344165E-16   1.01622348372090E-15
      9.00000000000000E-02
     -9.00000000000000E-03  -9.00000000000000E-03   0.00000000000000E+00   0.00000000000000E+00   0.00000000000000E+00
      0.00000000000000E+00   0.00000000000000E+00   4.68167826475141E-16   0.00000000000000E+00   0.00000000000000E+00
      0.00000000000000E+00   0.00000000000000E+00  -8.28495486705657E-16  -1.58421865677750E-18  -8.30079705362435E-16
      7.79584555697166E-16   7.00000000000000E-01   7.00000000000000E-01   0.00000000000000E+00   0.00000000000000E+00
      4.61014565328107E-16   4.13967248361246E-20   4.61055962052944E-16   1.01632777182968E-15
      1.00000000000000E-01
     -1.00000000000000E-02  -1.00000000000000E-02   0.00000000000000E+00   0.00000000000000E+00   0.00000000000000E+00
      0.00000000000000E+00   0.00000000000000E+00   4.66203016308881E-16   0.00000000000000E+00   0.00000000000000E+00
      0.00000000000000E+00   0.00000000000000E+00  -3.66843846215862E-16  -1.59374567793746E-18  -3.68437591893799E-16
      7.79644039950731E-16   7.00000000000000E-01   7.00000000000000E-01   0.00000000000000E+00   0.00000000000000E+00
      4.92696692874274E-16   4.13966947622629E-20   4.92738089569037E-16   1.01643133878212E-15
      1.10000000000000E-01
     -1.10000000000000E-02  -1.10000000000000E-02   0.00000000000000E+00   0.00000000000000E+00   0.00000000000000E+00
      0.00000000000000E+00   0.00000000000000E+00   4.64230184036947E-16   0.00000000000000E+00   0.00000000000000E+00
      0.00000000000000E+00   0.00000000000000E+00   6.55730054200457E-17  -1.60352945807302E-18   6.39694759619726E-17
      7.79702704313714E-16   7.00000000000000E-01   7.00000000000000E-01   0.00000000000000E+00   0.00000000000000E+00
     -8.74866148217699E-17   4.13966641874178E-20  -8.74452181575825E-17   1.01653416834452E-15
      1.20000000000000E-01
     -1.20000000000000E-02  -1.20000000000000E-02   0.00000000000000E+00   0.00000000000000E+00   0.00000000000000E+00
      0.00000000000000E+00   0.00000000000000E+00   4.62249187041719E-16   0.00000000000000E+00   0.00000000000000E+00
      0.00000000000000E+00   0.00000000000000E+00  -3.18112590014061E-16  -1.61357799083160E-18  -3.19726168004892E-16
      7.79760531355398E-16   7.00000000000000E-01   7.00000000000000E-01   0.00000000000000E+00   0.00000000000000E+00
      3.21899685467538E-16   4.13966331036510E-20   3.21941082100642E-16   1.01663624593730E-15
      1.30000000000000E-01
     -1.30000000000000E-02  -1.30000000000000E-02   0.00000000000000E+00   0.00000000000000E+00   0.00000000000000E+00
      0.00000000000000E+00   0.00000000000000E+00   4.60259863891394E-16   0.00000000000000E+00   0.00000000000000E+00
      0.00000000000000E+00   0.00000000000000E+00  -4.51250515340922E-17  -1.62390023803137E-18  -4.67489517721236E-17
      7.79817500570071E-16   7.00000000000000E-01   7.00000000000000E-01   0.00000000000000E+00   0.00000000000000E+00
      3.55632369815846E-16   4.13966015014683E-20   3.55673766417348E-16   1.01673755436825E-15
      1.40000000000000E-01
     -1.40000000000000E-02  -1.40000000000000E-02   0.00000000000000E+00   0.00000000000000E+00   0.00000000000000E+00
      0.00000000000000E+00   0.00000000000000E+00   4.58262075824826E-16   0.00000000000000E+00   0.00000000000000E+00
      0.00000000000000E+00   0.00000000000000E+00   7.80099567783080E-17  -1.63450437413281E-18   7.63754524041752E-17
      7.79873595645257E-16   7.00000000000000E-01   7.00000000000000E-01   0.00000000000000E+00   0.00000000000000E+00
      2.36731252468778E-16   4.13965693734729E-20   2.36772649038152E-16   1.01683808002553E-15
      1.50000000000000E-01
     -1.50000000000000E-02  -1.50000000000000E-02   0.00000000000000E+00   0.00000000000000E+00   0.00000000000000E+00
      0.00000000000000E+00   0.00000000000000E+00   4.56255658497228E-16   0.00000000000000E+00   0.00000000000000E+00
      0.00000000000000E+00   0.00000000000000E+00  -9.48053641707383E-16  -1.64539985377154E-18  -9.49699041561155E-16
      7.79928796025866E-16   7.00000000000000E-01   7.00000000000000E-01   0.00000000000000E+00   0.00000000000000E+00
      3.68329920205339E-16   4.13965367101281E-20   3.68371316742049E-16   1.01693780569056E-15
      1.60000000000000E-01
     -1.60000000000000E-02  -1.60000000000000E-02   0.00000000000000E+00   0.00000000000000E+00   0.00000000000000E+00
      0.00000000000000E+00   0.00000000000000E+00   4.54240467746191E-16   0.00000000000000E+00   0.00000000000000E+00
      0.00000000000000E+00   0.00000000000000E+00  -4.39915161083025E-16  -1.65659546112374E-18  -4.41571756544149E-16
      7.79983084911619E-16   7.00000000000000E-01   7.00000000000000E-01   0.00000000000000E+00   0.00000000000000E+00
     -4.03634975321982E-18   4.13965035037777E-20  -3.99495324971605E-18   1.01703671735133E-15
      1.70000000000000E-01
     -1.70000000000000E-02  -1.70000000000000E-02   0.00000000000000E+00   0.00000000000000E+00   0.00000000000000E+00
      0.00000000000000E+00   0.00000000000000E+00   4.52216338093988E-16   0.00000000000000E+00   0.00000000000000E+00
      0.00000000000000E+00   0.00000000000000E+00  -3.91115476440707E-16  -1.66810110610000E-18  -3.92783577546807E-16
      7.80036442027475E-16   7.00000000000000E-01   7.00000000000000E-01   0.00000000000000E+00   0.00000000000000E+00
      2.70982352017120E-16   4.13964697450148E-20   2.71023748486865E-16   1.01713479804418E-15
      1.80000000000000E-01
     -1.80000000000000E-02  -1.80000000000000E-02   0.00000000000000E+00   0.00000000000000E+00   0.00000000000000E+00
      0.00000000000000E+00   0.00000000000000E+00   4.50183111873600E-16   0.00000000000000E+00   0.00000000000000E+00
      0.00000000000000E+00   0.00000000000000E+00  -1.07093178822796E-16  -1.67992658045098E-18  -1.08773105403247E-16
      7.80088848704035E-16   7.00000000000000E-01   7.00000000000000E-01   0.00000000000000E+00   0.00000000000000E+00
     -9.91826925729199E-17   4.13964354252374E-20  -9.91412961374947E-17   1.01723203218149E-15
      1.90000000000000E-01
     -1.90000000000000E-02  -1.90000000000000E-02   0.00000000000000E+00   0.00000000000000E+00   0.00000000000000E+00
      0.00000000000000E+00   0.00000000000000E+00   4.48140632252115E-16   0.00000000000000E+00   0.00000000000000E+00
      0.00000000000000E+00   0.00000000000000E+00  -6.38346531970559E-16  -1.69208186601484E-18  -6.40038613836574E-16
      7.80140286661632E-16   7.00000000000000E-01   7.00000000000000E-01   0.00000000000000E+00   0.00000000000000E+00
      3.52358592622711E-16   4.13964005360397E-20   3.52399989023247E-16   1.01732840451594E-15
      2.00000000000000E-01
     -2.00000000000000E-02  -2.00000000000000E-02   0.00000000000000E+00   0.00000000000000E+00   0.00000000000000E+00
      0.00000000000000E+00   0.00000000000000E+00   4.46088723758485E-16   0.00000000000000E+00   0.00000000000000E+00
      0.00000000000000E+00   0.00000000000000E+00  -2.80915049548279E-16  -1.70457800416660E-18  -2.82619627552446E-16
      7.80190734651420E-16   7.00000000000000E-01   7.00000000000000E-01   0.00000000000000E+00   0.00000000000000E+00
      5.38926818829870E-16   4.13963650675282E-20   5.38968215194938E-16   1.01742389728079E-15
      2.10000000000000E-01
     -2.10000000000000E-02  -2.10000000000000E-02   0.00000000000000E+00   0.00000000000000E+00   0.00000000000000E+00
      0.00000000000000E+00   0.00000000000000E+00   4.44027245109103E-16   0.00000000000000E+00   0.00000000000000E+00
      0.00000000000000E+00   0.00000000000000E+00   2.74742087577743E-16  -1.71742478139198E-18   2.73024662796351E-16
      7.80240177586300E-16   7.00000000000000E-01   7.00000000000000E-01   0.00000000000000E+00   0.00000000000000E+00
      1.03635742922860E-16   4.13963290129089E-20   1.03677139251873E-16   1.01751849796432E-15
      2.20000000000000E-01
     -2.20000000000000E-02  -2.20000000000000E-02   0.00000000000000E+00   0.00000000000000E+00   0.00000000000000E+00
      0.00000000000000E+00   0.00000000000000E+00   4.41956008625248E-16   0.00000000000000E+00   0.00000000000000E+00
      0.00000000000000E+00   0.00000000000000E+00   1.04597428070847E-16  -1.73063429833892E-18   1.02866793772508E-16
      7.80288592635401E-16   7.00000000000000E-01   7.00000000000000E-01   0.00000000000000E+00   0.00000000000000E+00
      3.09042397702826E-16   4.13962923615089E-20   3.09083793995187E-16   1.01761218747101E-15
      2.30000000000000E-01
     -2.30000000000000E-02  -2.30000000000000E-02   0.00000000000000E+00   0.00000000000000E+00   0.00000000000000E+00
      0.00000000000000E+00   0.00000000000000E+00   4.39874856881998E-16   0.00000000000000E+00   0.00000000000000E+00
      0.00000000000000E+00   0.00000000000000E+00  -2.91204114447156E-16  -1.74421759549420E-18  -2.92948332042650E-16
      7.80335962453794E-16   7.00000000000000E-01   7.00000000000000E-01   0.00000000000000E+00   0.00000000000000E+00
      4.12156090962869E-16   4.13962551054172E-20   4.12197487217975E-16   1.01770495138497E-15
      2.40000000000000E-01
     -2.40000000000000E-02  -2.40000000000000E-02   0.00000000000000E+00   0.00000000000000E+00   0.00000000000000E+00
      0.00000000000000E+00   0.00000000000000E+00   4.37783619935230E-16   0.00000000000000E+00   0.00000000000000E+00
      0.00000000000000E+00   0.00000000000000E+00  -4.91326968238534E-17  -1.75818655946053E-18  -5.08908833833139E-17
      7.80382267810885E-16   7.00000000000000E-01   7.00000000000000E-01   0.00000000000000E+00   0.00000000000000E+00
      3.33962264798696E-16   4.13962172357815E-20   3.34003661015932E-16   1.01779677369435E-15
      2.50000000000000E-01
     -2.50000000000000E-02  -2.50000000000000E-02   0.00000000000000E+00   0.00000000000000E+00   0.00000000000000E+00
      0.00000000000000E+00   0.00000000000000E+00   4.35682126049884E-16   0.00000000000000E+00   0.00000000000000E+00
      0.00000000000000E+00   0.00000000000000E+00  -1.85175226401960E-16  -1.77255346395518E-18  -1.86947779865915E-16
      7.80427489447467E-16   7.00000000000000E-01   7.00000000000000E-01   0.00000000000000E+00   0.00000000000000E+00
      1.99629455174509E-16   4.13961787437298E-20   1.99670851353252E-16   1.01788763837252E-15
      2.60000000000000E-01
     -2.60000000000000E-02  -2.60000000000000E-02   0.00000000000000E+00   0.00000000000000E+00   0.00000000000000E+00
      0.00000000000000E+00   0.00000000000000E+00   4.33570203559217E-16   0.00000000000000E+00   0.00000000000000E+00
      0.00000000000000E+00   0.00000000000000E+00  -5.54790628956914E-16  -1.78733090055609E-18  -5.56577959857470E-16
      7.80471608398805E-16   7.00000000000000E-01   7.00000000000000E-01   0.00000000000000E+00   0.00000000000000E+00
      2.11602486618276E-16   4.13961396205173E-20   2.11643882757896E-16   1.01797752965316E-15
      2.70000000000000E-01
     -2.70000000000000E-02  -2.70000000000000E-02   0.00000000000000E+00   0.00000000000000E+00   0.00000000000000E+00
      0.00000000000000E+00   0.00000000000000E+00   4.31447687796011E-16   0.00000000000000E+00   0.00000000000000E+00
      0.00000000000000E+00   0.00000000000000E+00   2.96268437172968E-16  -1.80253147346827E-18   2.94465905699499E-16
      7.80514607177703E-16   7.00000000000000E-01   7.00000000000000E-01   0.00000000000000E+00   0.00000000000000E+00
      3.12502175857113E-16   4.13960998580968E-20   3.12543571956971E-16   1.01806643303675E-15
      2.80000000000000E-01
     -2.80000000000000E-02  -2.80000000000000E-02   0.00000000000000E+00   0.00000000000000E+00   0.00000000000000E+00
      0.00000000000000E+00   0.00000000000000E+00   4.29314387961257E-16   0.00000000000000E+00   0.00000000000000E+00
      0.00000000000000E+00   0.00000000000000E+00  -1.65879678948341E-16  -1.81816933663895E-18  -1.67697848284980E-16
      7.80556464135643E-16   7.00000000000000E-01   7.00000000000000E-01   0.00000000000000E+00   0.00000000000000E+00
      2.55245295657120E-16   4.13960594462743E-20   2.55286691716566E-16   1.01815433049339E-15
      2.90000000000000E-01
     -2.90000000000000E-02  -2.90000000000000E-02   0.00000000000000E+00   0.00000000000000E+00   0.00000000000000E+00
      0.00000000000000E+00   0.00000000000000E+00   4.27170146667977E-16   0.00000000000000E+00   0.00000000000000E+00
      0.00000000000000E+00   0.00000000000000E+00  -1.39323605863054E-16  -1.83425747411717E-18  -1.41157863337171E-16
      7.80597163608273E-16   7.00000000000000E-01   7.00000000000000E-01   0.00000000000000E+00   0.00000000000000E+00
      4.82581814264274E-16   4.13960183777873E-20   4.82623210282651E-16   1.01824120909416E-15
      3.00000000000000E-01
     -3.00000000000000E-02  -3.00000000000000E-02   0.00000000000000E+00   0.00000000000000E+00   0.00000000000000E+00
      0.00000000000000E+00   0.00000000000000E+00   4.25014775520271E-16   0.00000000000000E+00   0.00000000000000E+00
      0.00000000000000E+00   0.00000000000000E+00  -8.07101010543649E-18  -1.85081068569592E-18  -9.92182079113242E-18
      7.80636684958397E-16   7.00000000000000E-01   7.00000000000000E-01   0.00000000000000E+00   0.00000000000000E+00
      5.82929279217979E-16   4.13959766428247E-20   5.82970675194622E-16   1.01832705168997E-15
      3.10000000000000E-01
     -3.10000000000000E-02  -3.10000000000000E-02   0.00000000000000E+00   0.00000000000000E+00   0.00000000000000E+00
      0.00000000000000E+00   0.00000000000000E+00   4.22848106167261E-16   0.00000000000000E+00   0.00000000000000E+00
      0.00000000000000E+00   0.00000000000000E+00  -2.40941869320064E-16  -1.86784324063579E-18  -2.42809712560700E-16
      7.80675011255688E-16   7.00000000000000E-01   7.00000000000000E-01   0.00000000000000E+00   0.00000000000000E+00
      1.29536435619741E-16   4.13959342334024E-20   1.29577831553974E-16   1.01841184429502E-15
      3.20000000000000E-01
     -3.20000000000000E-02  -3.20000000000000E-02   0.00000000000000E+00   0.00000000000000E+00   0.00000000000000E+00
      0.00000000000000E+00   0.00000000000000E+00   4.20669952769125E-16   0.00000000000000E+00   0.00000000000000E+00
      0.00000000000000E+00   0.00000000000000E+00  -5.49069071128137E-16  -1.88537064707811E-18  -5.50954441775215E-16
      7.80712122918453E-16   7.00000000000000E-01   7.00000000000000E-01   0.00000000000000E+00   0.00000000000000E+00
      3.80652103789536E-16   4.13958911402072E-20   3.80693499680676E-16   1.01849557067894E-15
      3.30000000000000E-01
     -3.30000000000000E-02  -3.30000000000000E-02   0.00000000000000E+00   0.00000000000000E+00   0.00000000000000E+00
      0.00000000000000E+00   0.00000000000000E+00   4.18480140940020E-16   0.00000000000000E+00   0.00000000000000E+00
      0.00000000000000E+00   0.00000000000000E+00  -5.30379458060647E-16  -1.90340831285010E-18  -5.32282866373497E-16
      7.80748002616092E-16   7.00000000000000E-01   7.00000000000000E-01   0.00000000000000E+00   0.00000000000000E+00
      8.32141497785324E-18   4.13958473550786E-20   8.36281082520832E-18   1.01857821653616E-15
      3.40000000000000E-01
     -3.40000000000000E-02  -3.40000000000000E-02   0.00000000000000E+00   0.00000000000000E+00   0.00000000000000E+00
      0.00000000000000E+00   0.00000000000000E+00   4.16278485769514E-16   0.00000000000000E+00   0.00000000000000E+00