DF-ISE text

Info {
  version   = 1.0
  type      = xyplot
  datasets  = [
    "time"
    "gate OuterVoltage" "gate InnerVoltage" "gate QuasiFermiPotential" "gate DisplacementCurrent" "gate eCurrent"
    "gate hCurrent" "gate TotalCurrent" "gate Charge" "source OuterVoltage" "source InnerVoltage"
    "source QuasiFermiPotential" "source DisplacementCurrent" "source eCurrent" "source hCurrent" "source TotalCurrent"
    "source Charge" "drain OuterVoltage" "drain InnerVoltage" "drain QuasiFermiPotential" "drain DisplacementCurrent"
    "drain eCurrent" "drain hCurrent" "drain TotalCurrent" "drain Charge" ]
  functions = [
    Time
    OuterVoltage InnerVoltage QuasiFermiPotential DisplacementCurrent eCurrent
    hCurrent TotalCurrent Charge OuterVoltage InnerVoltage
    QuasiFermiPotential DisplacementCurrent eCurrent hCurrent TotalCurrent
    Charge OuterVoltage InnerVoltage QuasiFermiPotential DisplacementCurrent
    eCurrent hCurrent TotalCurrent Charge ]
}

Data {
      0.00000000000000E+00
     -1.00000000000000E-01  -1.00000000000000E-01   0.00000000000000E+00   0.00000000000000E+00   0.00000000000000E+00
      0.00000000000000E+00   0.00000000000000E+00   2.36762027241037E-16   0.00000000000000E+00   0.00000000000000E+00
      0.00000000000000E+00   0.00000000000000E+00   1.26973406544159E-16  -5.76732929013311E-18   1.21206077254026E-16
      7.79860206073786E-16   7.00000000000000E-01   7.00000000000000E-01   0.00000000000000E+00   0.00000000000000E+00
      2.68818005111718E-16   4.13911499569158E-20   2.68859396261675E-16   1.02127062445388E-15
      5.00000000000000E-02
     -4.50000000000000E-02  -4.50000000000000E-02   0.00000000000000E+00   0.00000000000000E+00   0.00000000000000E+00
      0.00000000000000E+00   0.00000000000000E+00   3.91227204089545E-16   0.00000000000000E+00   0.00000000000000E+00
      0.00000000000000E+00   0.00000000000000E+00  -3.02288382062108E-17  -2.16606862505925E-18  -3.23949068312700E-17
      7.81076206066356E-16   7.00000000000000E-01   7.00000000000000E-01   0.00000000000000E+00   0.00000000000000E+00
     -1.76742290879959E-16   4.13952650812786E-20  -1.76700895614878E-16   1.01948053424689E-15
      1.00000000000000E-01
      1.00000000000000E-02   1.00000000000000E-02   0.00000000000000E+00   0.00000000000000E+00   0.00000000000000E+00
      0.00000000000000E+00   0.00000000000000E+00   5.04157448534279E-16   0.00000000000000E+00   0.00000000000000E+00
      0.00000000000000E+00   0.00000000000000E+00  -3.04464191070744E-16  -1.44263675506147E-18  -3.05906827825806E-16
      7.78321934583628E-16   7.00000000000000E-01   7.00000000000000E-01   0.00000000000000E+00   0.00000000000000E+00
      8.80935863354586E-16   4.13972115833227E-20   8.80977260566170E-16   1.01423948474193E-15
      1.50000000000000E-01
      6.50000000000000E-02   6.50000000000000E-02   0.00000000000000E+00   0.00000000000000E+00   0.00000000000000E+00
      0.00000000000000E+00   0.00000000000000E+00   5.98911986789170E-16   0.00000000000000E+00   0.00000000000000E+00
      0.00000000000000E+00   0.00000000000000E+00  -2.45781284438871E-15  -1.24219751090381E-18  -2.45905504189961E-15
      7.73912922131067E-16   7.00000000000000E-01   7.00000000000000E-01   0.00000000000000E+00   0.00000000000000E+00
      2.37608894500600E-15   4.13979780281638E-20   2.37613034298402E-15   1.00746148999235E-15
      2.00000000000000E-01
      1.20000000000000E-01   1.20000000000000E-01   0.00000000000000E+00   0.00000000000000E+00   0.00000000000000E+00
      0.00000000000000E+00   0.00000000000000E+00   6.87416419857065E-16   0.00000000000000E+00   0.00000000000000E+00
      0.00000000000000E+00   0.00000000000000E+00  -1.03938104351981E-14  -1.08109545217907E-18  -1.03948915306503E-14
      7.69532658975940E-16   7.00000000000000E-01   7.00000000000000E-01   0.00000000000000E+00   0.00000000000000E+00
      1.02669584858489E-14   4.13981356159381E-20   1.02669998839845E-14   1.00056081130702E-15
      2.50000000000000E-01
      1.75000000000000E-01   1.75000000000000E-01   0.00000000000000E+00   0.00000000000000E+00   0.00000000000000E+00
      0.00000000000000E+00   0.00000000000000E+00   7.77424748565017E-16   0.00000000000000E+00   0.00000000000000E+00
      0.00000000000000E+00   0.00000000000000E+00  -4.90171287513454E-14  -7.57505460201164E-19  -4.90178862568056E-14
      7.66638377363045E-16   7.00000000000000E-01   7.00000000000000E-01   0.00000000000000E+00   0.00000000000000E+00
      4.95040553167876E-14   4.13983027842848E-20   4.95040967150904E-14   9.94776131443902E-16
      3.00000000000000E-01
      2.30000000000000E-01   2.30000000000000E-01   0.00000000000000E+00   0.00000000000000E+00   0.00000000000000E+00
      0.00000000000000E+00   0.00000000000000E+00   8.64225417763617E-16   0.00000000000000E+00   0.00000000000000E+00
      0.00000000000000E+00   0.00000000000000E+00  -2.46752130607803E-13  -5.01799301243787E-19  -2.46752632407104E-13
      7.64173580401545E-16   7.00000000000000E-01   7.00000000000000E-01   0.00000000000000E+00   0.00000000000000E+00
      2.46524134471356E-13   4.13982777907051E-20   2.46524175869634E-13   9.89187280542382E-16
      3.50000000000000E-01
      2.85000000000000E-01   2.85000000000000E-01   0.00000000000000E+00   0.00000000000000E+00   0.00000000000000E+00
      0.00000000000000E+00   0.00000000000000E+00   9.41380256081053E-16   0.00000000000000E+00   0.00000000000000E+00
      0.00000000000000E+00   0.00000000000000E+00  -1.32943135965974E-12  -4.18424108547212E-19  -1.32943177808384E-12
      7.60465699901204E-16   7.00000000000000E-01   7.00000000000000E-01   0.00000000000000E+00   0.00000000000000E+00
      1.32901933774756E-12   4.13974914153810E-20   1.32901937914505E-12   9.82310545985959E-16
      4.00000000000000E-01
      3.40000000000000E-01   3.40000000000000E-01   0.00000000000000E+00   0.00000000000000E+00   0.00000000000000E+00
      0.00000000000000E+00   0.00000000000000E+00   1.01232013028025E-15   0.00000000000000E+00   0.00000000000000E+00
      0.00000000000000E+00   0.00000000000000E+00  -7.53837520725828E-12  -4.06810505808123E-19  -7.53837561406878E-12
      7.56096937684162E-16   7.00000000000000E-01   7.00000000000000E-01   0.00000000000000E+00   0.00000000000000E+00
      7.53808330464774E-12   4.13962413801610E-20   7.53808334604399E-12   9.74608295737432E-16
      4.50000000000000E-01
      3.95000000000000E-01   3.95000000000000E-01   0.00000000000000E+00   0.00000000000000E+00   0.00000000000000E+00
      0.00000000000000E+00   0.00000000000000E+00   1.08136089808795E-15   0.00000000000000E+00   0.00000000000000E+00
      0.00000000000000E+00   0.00000000000000E+00  -4.35549710422308E-11  -3.95810252277204E-19  -4.35549714380410E-11
      7.52023159609700E-16   7.00000000000000E-01   7.00000000000000E-01   0.00000000000000E+00   0.00000000000000E+00
      4.35552428138040E-11   4.13949082032007E-20   4.35552428551989E-11   9.66873783435522E-16
      5.00000000000000E-01
      4.50000000000000E-01   4.50000000000000E-01   0.00000000000000E+00   0.00000000000000E+00   0.00000000000000E+00
      0.00000000000000E+00   0.00000000000000E+00   1.14899712085197E-15   0.00000000000000E+00   0.00000000000000E+00
      0.00000000000000E+00   0.00000000000000E+00  -2.55578964239415E-10  -3.84701264076447E-19  -2.55578964624116E-10
      7.48312322177221E-16   7.00000000000000E-01   7.00000000000000E-01   0.00000000000000E+00   0.00000000000000E+00
      2.55579532366038E-10   4.13934402439499E-20   2.55579532407432E-10   9.59118550212778E-16
      5.50000000000000E-01
      5.05000000000000E-01   5.05000000000000E-01   0.00000000000000E+00   0.00000000000000E+00   0.00000000000000E+00
      0.00000000000000E+00   0.00000000000000E+00   1.21530731505859E-15   0.00000000000000E+00   0.00000000000000E+00
      0.00000000000000E+00   0.00000000000000E+00  -1.52515680093705E-09  -3.86337661682046E-19  -1.52515680132338E-09
      7.44839169562948E-16   7.00000000000000E-01   7.00000000000000E-01   0.00000000000000E+00   0.00000000000000E+00
      1.52515701543355E-09   4.13918704955439E-20   1.52515701547494E-09   9.51178974368943E-16
      6.00000000000000E-01
      5.60000000000000E-01   5.60000000000000E-01   0.00000000000000E+00   0.00000000000000E+00   0.00000000000000E+00
      0.00000000000000E+00   0.00000000000000E+00   1.28346855251010E-15   0.00000000000000E+00   0.00000000000000E+00
      0.00000000000000E+00   0.00000000000000E+00  -9.09815455958542E-09  -3.79903527286115E-19  -9.09815455996532E-09
      7.41964444953043E-16   7.00000000000000E-01   7.00000000000000E-01   0.00000000000000E+00   0.00000000000000E+00
      9.09815404817045E-09   4.13903777555585E-20   9.09815404821184E-09   9.43326467432899E-16
      6.50000000000000E-01
      6.15000000000000E-01   6.15000000000000E-01   0.00000000000000E+00   0.00000000000000E+00   0.00000000000000E+00
      0.00000000000000E+00   0.00000000000000E+00   1.35927401802389E-15   0.00000000000000E+00   0.00000000000000E+00
      0.00000000000000E+00   0.00000000000000E+00  -5.25014629938920E-08  -3.85911580408842E-19  -5.25014629942779E-08
      7.39426711003268E-16   7.00000000000000E-01   7.00000000000000E-01   0.00000000000000E+00   0.00000000000000E+00
      5.25014632260852E-08   4.13887630211333E-20   5.25014632261266E-08   9.35307355549740E-16
      7.00000000000000E-01
      6.70000000000000E-01   6.70000000000000E-01   0.00000000000000E+00   0.00000000000000E+00   0.00000000000000E+00
      0.00000000000000E+00   0.00000000000000E+00   1.46074274335325E-15   0.00000000000000E+00   0.00000000000000E+00
      0.00000000000000E+00   0.00000000000000E+00  -2.56634255001926E-07  -4.07369506534847E-19  -2.56634255002333E-07
      7.37169142098252E-16   7.00000000000000E-01   7.00000000000000E-01   0.00000000000000E+00   0.00000000000000E+00
      2.56634254767361E-07   4.13873581858257E-20   2.56634254767403E-07   9.27126243760087E-16
      7.50000000000000E-01
      7.25000000000000E-01   7.25000000000000E-01   0.00000000000000E+00   0.00000000000000E+00   0.00000000000000E+00
      0.00000000000000E+00   0.00000000000000E+00   1.60429730562080E-15   0.00000000000000E+00   0.00000000000000E+00
      0.00000000000000E+00   0.00000000000000E+00  -9.01971459770287E-07  -4.66913390896006E-19  -9.01971459770754E-07
      7.34825984575736E-16   7.00000000000000E-01   7.00000000000000E-01   0.00000000000000E+00   0.00000000000000E+00
      9.01971459420491E-07   4.13868560298557E-20   9.01971459420533E-07   9.18635756166469E-16
      8.00000000000000E-01
      7.80000000000000E-01   7.80000000000000E-01   0.00000000000000E+00   0.00000000000000E+00   0.00000000000000E+00
      0.00000000000000E+00   0.00000000000000E+00   1.78510274451726E-15   0.00000000000000E+00   0.00000000000000E+00
      0.00000000000000E+00   0.00000000000000E+00  -2.26783200416543E-06  -5.46705555299223E-19  -2.26783200416598E-06
      7.32588805809589E-16   7.00000000000000E-01   7.00000000000000E-01   0.00000000000000E+00   0.00000000000000E+00
      2.26783200422005E-06   4.13883044629548E-20   2.26783200422009E-06   9.10201182729765E-16
      8.50000000000000E-01
      8.35000000000000E-01   8.35000000000000E-01   0.00000000000000E+00   0.00000000000000E+00   0.00000000000000E+00
      0.00000000000000E+00   0.00000000000000E+00   1.99027985039547E-15   0.00000000000000E+00   0.00000000000000E+00
      0.00000000000000E+00   0.00000000000000E+00  -4.49982953524610E-06  -6.45588362083266E-19  -4.49982953524674E-06
      7.30440436795001E-16   7.00000000000000E-01   7.00000000000000E-01   0.00000000000000E+00   0.00000000000000E+00
      4.49982953547052E-06   4.13922156264563E-20   4.49982953547056E-06   9.01921849373925E-16
      9.00000000000000E-01
      8.90000000000000E-01   8.90000000000000E-01   0.00000000000000E+00   0.00000000000000E+00   0.00000000000000E+00
      0.00000000000000E+00   0.00000000000000E+00   2.21144999622612E-15   0.00000000000000E+00   0.00000000000000E+00
      0.00000000000000E+00   0.00000000000000E+00  -7.63767176651448E-06  -7.59109643869085E-19  -7.63767176651524E-06
      7.28406791721334E-16   7.00000000000000E-01   7.00000000000000E-01   0.00000000000000E+00   0.00000000000000E+00
      7.63767176525598E-06   4.13986887711363E-20   7.63767176525602E-06   8.93874687083147E-16
      9.50000000000000E-01
      9.45000000000000E-01   9.45000000000000E-01   0.00000000000000E+00   0.00000000000000E+00   0.00000000000000E+00
      0.00000000000000E+00   0.00000000000000E+00   2.44391819105076E-15   0.00000000000000E+00   0.00000000000000E+00
      0.00000000000000E+00   0.00000000000000E+00  -1.16659526958253E-05  -8.82849834647907E-19  -1.16659526958262E-05
      7.26501793906745E-16   7.00000000000000E-01   7.00000000000000E-01   0.00000000000000E+00   0.00000000000000E+00
      1.16659526962203E-05   4.14074213366162E-20   1.16659526962203E-05   8.86103298360400E-16
      1.00000000000000E+00
      1.00000000000000E+00   1.00000000000000E+00   0.00000000000000E+00   0.00000000000000E+00   0.00000000000000E+00
      0.00000000000000E+00   0.00000000000000E+00   2.68493187792873E-15   0.00000000000000E+00   0.00000000000000E+00
      0.00000000000000E+00   0.00000000000000E+00  -1.65438789078942E-05  -1.01375957361596E-18  -1.65438789078952E-05
      7.24721508701996E-16   7.00000000000000E-01   7.00000000000000E-01   0.00000000000000E+00   0.00000000000000E+00
      1.65438789078708E-05   4.14180384793635E-20   1.65438789078708E-05   8.78628901297805E-16
}
